Pt111                                   
           1
    18.000000    0.000000    0.000000
     0.000000   18.000000    0.000000
     0.000000    0.000000   18.000000
   H    O 
     2     1
Direct configuration=     1
   0.53785000  0.50972000  0.50000000
   0.46215000  0.50972000  0.50000000
   0.50000000  0.48057000  0.50000000
Direct configuration=     2
   0.53973937  0.51102083  0.49999973
   0.46026112  0.51102065  0.50000008
   0.49999997  0.48040741  0.50000001
Direct configuration=     3
   0.53785013  0.50972009  0.50000000
   0.46214987  0.50972009  0.50000000
   0.50000000  0.48056999  0.50000000
Direct configuration=     4
   0.53973937  0.51102083  0.49999973
   0.46026112  0.51102065  0.50000008
   0.49999997  0.48040741  0.50000001
Direct configuration=     5
   0.53785017  0.50972012  0.50000000
   0.46214983  0.50972012  0.50000000
   0.50000000  0.48056998  0.50000000
Direct configuration=     6
   0.53973936  0.51102083  0.49999973
   0.46026112  0.51102065  0.50000008
   0.49999997  0.48040741  0.50000001
Direct configuration=     7
   0.53785020  0.50972014  0.50000000
   0.46214980  0.50972014  0.50000000
   0.50000000  0.48056998  0.50000000
Direct configuration=     8
   0.53973936  0.51102083  0.49999973
   0.46026112  0.51102065  0.50000008
   0.49999997  0.48040741  0.50000001
Direct configuration=     9
   0.53785022  0.50972015  0.50000000
   0.46214978  0.50972015  0.50000000
   0.50000000  0.48056998  0.50000000
Direct configuration=    10
   0.53973936  0.51102083  0.49999973
   0.46026112  0.51102065  0.50000008
   0.49999997  0.48040741  0.50000001
Direct configuration=    11
   0.53785023  0.50972016  0.50000000
   0.46214977  0.50972016  0.50000000
   0.50000000  0.48056998  0.50000000
Direct configuration=    12
   0.53973936  0.51102083  0.49999973
   0.46026112  0.51102065  0.50000008
   0.49999997  0.48040741  0.50000001
Direct configuration=    13
   0.53785025  0.50972017  0.50000000
   0.46214975  0.50972017  0.50000000
   0.50000000  0.48056998  0.50000000
Direct configuration=    14
   0.53973936  0.51102083  0.49999973
   0.46026112  0.51102065  0.50000008
   0.49999997  0.48040741  0.50000001
Direct configuration=    15
   0.53785026  0.50972018  0.50000000
   0.46214974  0.50972018  0.50000000
   0.50000000  0.48056998  0.50000000
Direct configuration=    16
   0.53973936  0.51102083  0.49999973
   0.46026112  0.51102065  0.50000008
   0.49999997  0.48040741  0.50000001
Direct configuration=    17
   0.53785026  0.50972018  0.50000000
   0.46214974  0.50972018  0.50000000
   0.50000000  0.48056998  0.50000000
Direct configuration=    18
   0.53973936  0.51102083  0.49999973
   0.46026112  0.51102065  0.50000008
   0.49999997  0.48040741  0.50000001
Direct configuration=    19
   0.53785027  0.50972019  0.50000000
   0.46214973  0.50972019  0.50000000
   0.50000000  0.48056998  0.50000000
Direct configuration=    20
   0.53973936  0.51102083  0.49999973
   0.46026112  0.51102065  0.50000008
   0.49999997  0.48040741  0.50000001
Direct configuration=    21
   0.53785028  0.50972019  0.50000000
   0.46214972  0.50972019  0.50000000
   0.50000000  0.48056998  0.50000000
Direct configuration=    22
   0.53973936  0.51102083  0.49999973
   0.46026112  0.51102065  0.50000008
   0.49999997  0.48040741  0.50000001
Direct configuration=    23
   0.53785029  0.50972020  0.50000000
   0.46214971  0.50972020  0.50000000
   0.50000000  0.48056998  0.50000000
Direct configuration=    24
   0.53973936  0.51102083  0.49999973
   0.46026112  0.51102065  0.50000008
   0.49999997  0.48040741  0.50000001
Direct configuration=    25
   0.53785029  0.50972020  0.50000000
   0.46214971  0.50972020  0.50000000
   0.50000000  0.48056997  0.50000000
Direct configuration=    26
   0.53973936  0.51102083  0.49999973
   0.46026112  0.51102065  0.50000008
   0.49999997  0.48040741  0.50000001
Direct configuration=    27
   0.53785030  0.50972020  0.50000000
   0.46214970  0.50972020  0.50000000
   0.50000000  0.48056997  0.50000000
Direct configuration=    28
   0.53973936  0.51102083  0.49999973
   0.46026112  0.51102065  0.50000008
   0.49999997  0.48040741  0.50000001
Direct configuration=    29
   0.53785030  0.50972021  0.50000000
   0.46214970  0.50972021  0.50000000
   0.50000000  0.48056997  0.50000000
Direct configuration=    30
   0.53973936  0.51102083  0.49999973
   0.46026112  0.51102065  0.50000008
   0.49999997  0.48040741  0.50000001
Direct configuration=    31
   0.53785031  0.50972021  0.50000000
   0.46214969  0.50972021  0.50000000
   0.50000000  0.48056997  0.50000000
Direct configuration=    32
   0.53973936  0.51102083  0.49999973
   0.46026112  0.51102065  0.50000008
   0.49999997  0.48040741  0.50000001
Direct configuration=    33
   0.53785031  0.50972021  0.50000000
   0.46214969  0.50972021  0.50000000
   0.50000000  0.48056997  0.50000000
Direct configuration=    34
   0.53973936  0.51102083  0.49999973
   0.46026112  0.51102065  0.50000008
   0.49999997  0.48040741  0.50000001
Direct configuration=    35
   0.53785031  0.50972022  0.50000000
   0.46214969  0.50972022  0.50000000
   0.50000000  0.48056997  0.50000000
Direct configuration=    36
   0.53973936  0.51102083  0.49999973
   0.46026112  0.51102065  0.50000008
   0.49999997  0.48040741  0.50000001
Direct configuration=    37
   0.53785032  0.50972022  0.50000000
   0.46214968  0.50972022  0.50000000
   0.50000000  0.48056997  0.50000000
Direct configuration=    38
   0.53973936  0.51102083  0.49999973
   0.46026112  0.51102065  0.50000008
   0.49999997  0.48040741  0.50000001
Direct configuration=    39
   0.53785032  0.50972022  0.50000000
   0.46214968  0.50972022  0.50000000
   0.50000000  0.48056997  0.50000000
Direct configuration=    40
   0.53973936  0.51102083  0.49999973
   0.46026112  0.51102065  0.50000008
   0.49999997  0.48040741  0.50000001
Direct configuration=    41
   0.53785032  0.50972022  0.50000000
   0.46214968  0.50972022  0.50000000
   0.50000000  0.48056997  0.50000000
Direct configuration=    42
   0.53973936  0.51102083  0.49999973
   0.46026112  0.51102065  0.50000008
   0.49999997  0.48040741  0.50000001
Direct configuration=    43
   0.53785033  0.50972023  0.50000000
   0.46214967  0.50972023  0.50000000
   0.50000000  0.48056997  0.50000000
Direct configuration=    44
   0.53973936  0.51102083  0.49999973
   0.46026112  0.51102065  0.50000008
   0.49999997  0.48040741  0.50000001
Direct configuration=    45
   0.53785033  0.50972023  0.50000000
   0.46214967  0.50972023  0.50000000
   0.50000000  0.48056997  0.50000000
Direct configuration=    46
   0.53973936  0.51102083  0.49999973
   0.46026112  0.51102065  0.50000008
   0.49999997  0.48040741  0.50000001
Direct configuration=    47
   0.53785033  0.50972023  0.50000000
   0.46214967  0.50972023  0.50000000
   0.50000000  0.48056997  0.50000000
Direct configuration=    48
   0.53973936  0.51102083  0.49999973
   0.46026112  0.51102065  0.50000008
   0.49999997  0.48040741  0.50000001
Direct configuration=    49
   0.53785034  0.50972023  0.50000000
   0.46214966  0.50972023  0.50000000
   0.50000000  0.48056997  0.50000000
Direct configuration=    50
   0.53973936  0.51102083  0.49999973
   0.46026112  0.51102065  0.50000008
   0.49999997  0.48040741  0.50000001
Direct configuration=    51
   0.53785034  0.50972023  0.50000000
   0.46214966  0.50972023  0.50000000
   0.50000000  0.48056997  0.50000000
Direct configuration=    52
   0.53973936  0.51102083  0.49999973
   0.46026112  0.51102065  0.50000008
   0.49999997  0.48040741  0.50000001
Direct configuration=    53
   0.53785034  0.50972024  0.50000000
   0.46214966  0.50972024  0.50000000
   0.50000000  0.48056997  0.50000000
Direct configuration=    54
   0.53973936  0.51102083  0.49999973
   0.46026112  0.51102065  0.50000008
   0.49999997  0.48040741  0.50000001
Direct configuration=    55
   0.53785034  0.50972024  0.50000000
   0.46214966  0.50972024  0.50000000
   0.50000000  0.48056997  0.50000000
Direct configuration=    56
   0.53973936  0.51102083  0.49999973
   0.46026112  0.51102065  0.50000008
   0.49999997  0.48040741  0.50000001
Direct configuration=    57
   0.53785035  0.50972024  0.50000000
   0.46214965  0.50972024  0.50000000
   0.50000000  0.48056997  0.50000000
Direct configuration=    58
   0.53973936  0.51102083  0.49999973
   0.46026112  0.51102065  0.50000008
   0.49999997  0.48040741  0.50000001
Direct configuration=    59
   0.53785035  0.50972024  0.50000000
   0.46214965  0.50972024  0.50000000
   0.50000000  0.48056997  0.50000000
Direct configuration=    60
   0.53973936  0.51102083  0.49999973
   0.46026112  0.51102065  0.50000008
   0.49999997  0.48040741  0.50000001
Direct configuration=    61
   0.53785035  0.50972024  0.50000000
   0.46214965  0.50972024  0.50000000
   0.50000000  0.48056997  0.50000000
Direct configuration=    62
   0.53973936  0.51102083  0.49999973
   0.46026112  0.51102065  0.50000008
   0.49999997  0.48040741  0.50000001
Direct configuration=    63
   0.53785035  0.50972024  0.50000000
   0.46214965  0.50972024  0.50000000
   0.50000000  0.48056997  0.50000000
Direct configuration=    64
   0.53973936  0.51102083  0.49999973
   0.46026112  0.51102065  0.50000008
   0.49999997  0.48040741  0.50000001
Direct configuration=    65
   0.53785036  0.50972024  0.50000000
   0.46214964  0.50972024  0.50000000
   0.50000000  0.48056997  0.50000000
Direct configuration=    66
   0.53973936  0.51102083  0.49999973
   0.46026112  0.51102065  0.50000008
   0.49999997  0.48040741  0.50000001
Direct configuration=    67
   0.53785036  0.50972025  0.50000000
   0.46214964  0.50972025  0.50000000
   0.50000000  0.48056997  0.50000000
Direct configuration=    68
   0.53973936  0.51102083  0.49999973
   0.46026112  0.51102065  0.50000008
   0.49999997  0.48040741  0.50000001
Direct configuration=    69
   0.53785036  0.50972025  0.50000000
   0.46214964  0.50972025  0.50000000
   0.50000000  0.48056997  0.50000000
Direct configuration=    70
   0.53973936  0.51102083  0.49999973
   0.46026112  0.51102065  0.50000008
   0.49999997  0.48040741  0.50000001
Direct configuration=    71
   0.53785036  0.50972025  0.50000000
   0.46214964  0.50972025  0.50000000
   0.50000000  0.48056997  0.50000000
Direct configuration=    72
   0.53973936  0.51102083  0.49999973
   0.46026112  0.51102065  0.50000008
   0.49999997  0.48040741  0.50000001
Direct configuration=    73
   0.53785036  0.50972025  0.50000000
   0.46214964  0.50972025  0.50000000
   0.50000000  0.48056997  0.50000000
Direct configuration=    74
   0.53973936  0.51102083  0.49999973
   0.46026112  0.51102065  0.50000008
   0.49999997  0.48040741  0.50000001
Direct configuration=    75
   0.53785037  0.50972025  0.50000000
   0.46214963  0.50972025  0.50000000
   0.50000000  0.48056997  0.50000000
Direct configuration=    76
   0.53973936  0.51102083  0.49999973
   0.46026112  0.51102065  0.50000008
   0.49999997  0.48040741  0.50000001
Direct configuration=    77
   0.53785037  0.50972025  0.50000000
   0.46214963  0.50972025  0.50000000
   0.50000000  0.48056997  0.50000000
Direct configuration=    78
   0.53973936  0.51102083  0.49999973
   0.46026112  0.51102065  0.50000008
   0.49999997  0.48040741  0.50000001
Direct configuration=    79
   0.53785037  0.50972025  0.50000000
   0.46214963  0.50972025  0.50000000
   0.50000000  0.48056997  0.50000000
Direct configuration=    80
   0.53973936  0.51102083  0.49999973
   0.46026112  0.51102065  0.50000008
   0.49999997  0.48040741  0.50000001
Direct configuration=    81
   0.53785037  0.50972025  0.50000000
   0.46214963  0.50972025  0.50000000
   0.50000000  0.48056997  0.50000000
Direct configuration=    82
   0.53973936  0.51102083  0.49999973
   0.46026112  0.51102065  0.50000008
   0.49999997  0.48040741  0.50000001
Direct configuration=    83
   0.53785037  0.50972026  0.50000000
   0.46214963  0.50972026  0.50000000
   0.50000000  0.48056997  0.50000000
Direct configuration=    84
   0.53973936  0.51102083  0.49999973
   0.46026112  0.51102065  0.50000008
   0.49999997  0.48040741  0.50000001
Direct configuration=    85
   0.53785037  0.50972026  0.50000000
   0.46214963  0.50972026  0.50000000
   0.50000000  0.48056997  0.50000000
